# vtk DataFile Version 4.1
vtk output
ASCII
DATASET UNSTRUCTURED_GRID
POINTS 354 float
2.09799e-17 0.02 -1.49012e-09 0.00867767 0.0180194 -1.49012e-09 0.0156366 0.0124698 -1.49012e-09 
0.0194986 0.00445042 -1.49012e-09 0.0194986 -0.00445042 -1.49012e-09 0.0156366 -0.0124698 -1.49012e-09 
0.00867767 -0.0180194 -1.49012e-09 2.58783e-17 -0.02 -1.49012e-09 -0.00867767 -0.0180194 -1.49012e-09 
-0.0156366 -0.0124698 -1.49012e-09 -0.0194986 -0.00445042 -1.49012e-09 -0.0194986 0.00445042 -1.49012e-09 
-0.0156366 0.0124698 -1.49012e-09 -0.00867767 0.0180194 -1.49012e-09 -0.00331346 -0.0125968 -1.49012e-09 
-0.00036248 0.00633129 -1.49012e-09 -0.0103891 -0.00881238 -1.49012e-09 0.00488211 -0.0105607 -1.49012e-09 
0.0113463 -0.00511443 -1.49012e-09 0.0128329 0.00274015 -1.49012e-09 -0.0111654 -0.000638833 -1.49012e-09 
-0.00881628 0.00806111 -1.49012e-09 0.00697212 0.00882425 -1.49012e-09 -0.000435893 0.0132889 -1.49012e-09 
0.00425778 -0.000372268 -1.49012e-09 -0.00309619 -0.00526093 -1.49012e-09 -0.00390447 0.0015894 -1.49012e-09 
-1.22461e-18 0.02 0.1 -0.00867767 0.0180194 0.1 -0.0156366 0.0124698 0.1 
-0.0194986 0.00445042 0.1 -0.0194986 -0.00445042 0.1 -0.0156366 -0.0124698 0.1 
-0.00867767 -0.0180194 0.1 -1.22461e-18 -0.02 0.1 0.00867767 -0.0180194 0.1 
0.0156366 -0.0124698 0.1 0.0194986 -0.00445042 0.1 0.0194986 0.00445042 0.1 
0.0156366 0.0124698 0.1 0.00867767 0.0180194 0.1 0.00226931 0.0104978 0.1 
-0.00287079 -0.00415854 0.1 0.00289892 -0.00580521 0.1 0.0104008 0.00787233 0.1 
-0.00612875 0.0118953 0.1 -0.0114838 0.00591868 0.1 -0.0116824 -0.002451 0.1 
0.0125969 0.000151473 0.1 0.00928661 -0.00759531 0.1 -0.00777889 -0.00991971 0.1 
0.000306094 -0.0122346 0.1 -0.004144 0.0037321 0.1 0.00437783 0.000939391 0.1 
0.0041605 0.0195625 0.0926554 -0.0125707 0.0155556 0.0661356 0.0121929 0.0158535 0.0925463 
-0.00450047 0.0194871 0.092683 0.0178471 0.00902659 0.0924159 0.019993 0.000530112 0.0922932 
-0.012447 0.0156548 0.0926066 -0.018 0.00871775 0.0924923 -0.0199989 0.000206012 0.0923572 
0.0181934 -0.00830672 0.0922018 0.012638 -0.015501 0.092131 0.00454896 -0.0194758 0.0920849 
-0.00428719 -0.0195351 0.0920608 -0.0124498 -0.0156526 0.0920994 -0.018084 -0.00854213 0.092205 
-0.00436416 0.019518 0.00771424 -0.0124532 0.0156499 0.00771098 0.00440734 0.0195083 0.00771145 
-0.0180441 0.00862622 0.00768714 -0.0199998 8.31282e-05 0.00764207 0.0124643 0.015641 0.00771753 
0.0180466 0.00862099 0.00770096 0.0199999 7.14775e-05 0.00766307 -0.0180514 -0.0086108 0.00761072 
-0.0124653 -0.0156402 0.00758146 -0.00442621 -0.0195041 0.00755708 0.00433036 -0.0195256 0.0075723 
0.0180395 -0.00863568 0.00763762 0.0124226 -0.0156741 0.00760483 -0.00865302 -0.0180312 0.0151135 
-0.0156439 -0.0124606 0.0151692 -0.0195037 -0.00442801 0.0152477 -0.0195327 0.00429788 0.0153504 
-0.0156909 0.0124014 0.015413 -0.00862057 0.0180468 0.0154431 9.86543e-05 0.0199998 0.0154557 
0.00864775 0.0180338 0.0154557 0.015688 0.0124052 0.0154312 0.0195329 0.004297 0.0153805 
0.019498 -0.00445301 0.0152958 0.0156012 -0.0125141 0.0152244 -0.000167613 -0.0199993 0.0151012 
0.00899534 -0.0178629 0.0842076 0.0160209 -0.0119721 0.0843536 0.0196848 -0.00353684 0.0845081 
0.0192351 0.00547819 0.0846853 0.0150922 0.0131235 0.08494 0.00805403 0.0183066 0.085237 
-0.000428701 0.0199954 0.085397 -0.00867448 0.0180209 0.0853096 -0.0155357 0.0125954 0.0851114 
-0.0194437 0.00468445 0.084855 0.000345607 -0.019997 0.0841065 -0.0085403 -0.0180849 0.0841269 
-0.0157387 -0.0123407 0.0842903 0.00851841 -0.0180952 0.0151472 0.0179639 -0.0087919 0.022885 
0.019998 -0.000283579 0.023016 0.0181186 0.00846865 0.0231222 0.0124978 0.0156143 0.0231941 
0.00436434 0.019518 0.0232308 -0.00442846 0.0195036 0.0232109 -0.0125404 0.0155801 0.0231762 
-0.0181332 0.00843721 0.0230966 -0.019998 -0.000283749 0.0229642 -0.0179863 -0.00874607 0.0228021 
-0.0124125 -0.0156821 0.0226613 -0.00444085 -0.0195007 0.0225926 0.0123118 -0.0157613 0.022743 
0.00422495 -0.0195487 0.0226235 0.0195863 0.00404682 0.0307806 0.0194296 -0.0047423 0.0306071 
0.0157673 0.0123042 0.0309121 0.0086282 0.0180431 0.0310009 -0.000179715 0.0199992 0.0310263 
-0.00878705 0.0179663 0.0309856 -0.0158314 0.0122216 0.0308942 -0.0195972 0.00399393 0.0307434 
-0.0194316 -0.00473432 0.0305171 -0.0155128 -0.0126235 0.0302536 -0.00857636 -0.0180678 0.030055 
-0.0195809 -0.00407279 0.0845464 -0.0125546 -0.0155686 0.0762557 -0.00413947 -0.0195669 0.0760684 
0.0048919 -0.0193925 0.0761839 0.01306 -0.0151471 0.0764499 0.018499 -0.00760189 0.076684 
0.0199407 0.0015392 0.0769026 0.0172293 0.0101563 0.0771713 0.0113536 0.016465 0.0775837 
0.00358771 0.0196756 0.0781739 -0.0046219 0.0194586 0.0781307 -0.0121733 0.0158685 0.0777972 
-0.0177812 0.00915575 0.0775683 0.0154504 -0.0126998 0.0303981 -0.000206206 -0.0199989 0.0300281 
0.00838049 -0.0181595 0.0301755 0.0199874 -0.000708451 0.0384026 0.0177525 -0.00921141 0.0381393 
0.0182352 0.00821439 0.0385938 0.0125901 0.01554 0.03876 0.00431905 0.0195281 0.0388597 
-0.00458603 0.0194671 0.0388468 -0.0127334 0.0154227 0.0387442 -0.0182855 0.00810195 0.0385783 
-0.019985 -0.000775495 0.0383348 -0.0177693 -0.00917895 0.0379655 -0.0121855 -0.0158592 0.037554 
0.0120212 -0.015984 0.0378259 -0.00438875 -0.0195125 0.0373286 0.0191967 -0.00561146 0.0459516 
0.0149468 -0.0132889 0.0456032 0.0196927 0.0034923 0.0462178 0.0159661 0.0120451 0.0464551 
0.00873293 0.0179927 0.046696 -0.000230898 0.0199987 0.0467723 -0.00898249 0.0178694 0.0466455 
-0.0160792 0.0118936 0.0464556 -0.0197149 0.00336479 0.0462119 -0.0191723 -0.00569411 0.0458311 
-0.0149874 -0.013243 0.0452893 -0.0182603 -0.00815854 0.0766168 -0.0199844 0.000790527 0.0770261 
-0.00865354 -0.018031 0.0680063 -0.0160716 -0.0119039 0.0685976 0.000627695 -0.0199901 0.0679486 
0.00954837 -0.0175735 0.0684611 0.0164657 -0.0113525 0.0688297 0.0198267 -0.00262746 0.0691052 
0.0188693 0.00662949 0.0693733 0.0139656 0.0143165 0.0697389 0.00658858 0.0188836 0.0703711 
-0.000690603 0.0199881 0.0718542 -0.00800881 0.0183265 0.070027 -0.0150946 0.0131207 0.0707418 
-0.00827411 -0.0182082 0.0445744 0.00405492 -0.0195846 0.0374787 0.007833 -0.0184023 0.0451553 
-0.0170041 -0.010529 0.0532219 -0.0109345 -0.0167463 0.052444 -0.0199174 -0.00181565 0.0537372 
-0.0185385 0.00750487 0.0541713 -0.0130606 0.0151467 0.0543162 -0.00470024 0.0194399 0.0546548 
0.00439668 0.0195107 0.0548218 0.0128932 0.0152894 0.054386 0.0184843 0.00763748 0.0540509 
0.0199358 -0.00160155 0.0537713 0.0171337 -0.0103168 0.0534603 0.0110294 -0.0166839 0.0530152 
-0.000361541 -0.0199967 0.0445288 -0.00428233 -0.0195362 0.0508009 0.0188433 -0.0067029 0.0612906 
0.0138135 -0.0144633 0.0609348 0.01983 0.00260187 0.0615793 0.0164441 0.0113838 0.0618985 
0.00934504 0.0176825 0.0624033 -0.00043446 0.0199953 0.0635225 -0.00937518 0.0176665 0.0616423 
-0.0164023 0.011444 0.0623799 -0.0198664 0.00230787 0.0616815 -0.0186839 -0.00713527 0.0611554 
-0.0132327 -0.0149965 0.0604888 -0.019104 0.0059193 0.069652 -0.0197419 -0.00320266 0.0690979 
0.00592041 -0.0191036 0.0603562 -0.00415022 -0.0195647 0.0591512 0.00285719 -0.0197949 0.0523433 
-0.00770255 0.00985955 0.0681931 0.00146865 -0.00300812 0.0927644 -3.0558e-06 0.00251614 0.00685421 
0.00416387 -0.00854505 0.0917468 -0.00284646 -0.0128011 0.0470737 0.00205792 0.00948147 0.00706217 
-0.00605535 -0.00143679 0.0062014 -0.000395812 0.0130195 0.075601 -0.00725217 0.00718202 0.0934479 
-0.00744403 -0.00550975 0.0931192 -0.00157442 -0.0116577 0.0541212 -0.000509178 -0.00947283 0.00689506 
0.00912519 0.00298773 0.0925015 -0.000112612 -0.0126959 0.0345172 0.00947899 -0.000915515 0.00696346 
-0.000103269 -0.0126216 0.0255332 -0.00769783 0.00990965 0.0822764 -0.00972012 -0.00798252 0.0348063 
0.00926308 0.00828775 0.0803363 0.00744705 -0.0100739 0.0424077 -0.0121481 -0.00293483 0.0258777 
-0.0118359 0.00344134 0.0743142 -0.0108768 -0.0064266 0.048523 0.0121207 -0.00282119 0.0199426 
0.00594946 0.0105307 0.0670841 -0.00769588 -0.00969792 0.0181377 -0.00556738 0.0105979 0.0574672 
0.0121281 -0.00305222 0.0352625 0.0027482 0.0121304 0.0185003 -0.00276889 0.011984 0.0279403 
-0.0111833 0.00532951 0.0123358 -0.0120957 0.00216576 0.0415285 0.0121881 -0.000850558 0.0491484 
0.0110936 0.00516841 0.0277688 -0.000116102 0.012283 0.0419606 0.0102819 -0.00637744 0.0580406 
0.00315388 -0.0115715 0.0810463 -0.0111277 -0.00504664 0.0813191 0.0119763 -0.00170981 0.0737052 
0.00341212 -0.0115709 0.0650814 0.00971731 0.00686499 0.0573432 -0.0110809 -0.00439375 0.065732 
-0.00515421 -0.010763 0.0729244 -0.00285727 -0.0118637 0.0928342 -0.0117785 0.00103089 0.0883497 
0.00198103 0.00990561 0.0896853 0.0112481 -0.00447363 0.0877619 0.00768429 -0.00893368 0.00757541 
0.00980111 0.00712286 0.0110697 0.00231002 -0.0105648 0.0162387 -0.00789926 -0.0103762 0.0271085 
-0.00570772 -0.0122723 0.0398789 -0.000250154 0.000924682 0.0780156 0.00814747 -0.00823058 0.0265218 
0.0111936 0.00700506 0.0724063 -0.00104108 0.0135907 0.0676681 -0.0115004 -0.00495625 0.0119569 
0.00231938 0.0128751 0.059743 -0.01077 0.0041176 0.0615864 8.5451e-06 -0.000527483 0.0383598 
-0.0099604 0.00608752 0.0269812 -0.00592576 0.010776 0.0197433 -0.00622842 0.0101132 0.00764839 
-0.00982812 0.00555766 0.0503421 -0.0123124 -0.00529795 0.0412786 -0.0131004 -0.000456551 0.0337299 
0.0125439 -0.00455293 0.0426163 0.00578583 0.0115845 0.0263612 0.00844597 0.00603932 0.0420195 
-0.00314373 0.01274 0.049749 -0.00578671 0.0117337 0.035781 0.00630699 -0.00965033 0.0510248 
-0.00255189 -0.00649368 0.0846994 0.0103158 -0.00767794 0.0796216 0.0123596 -0.00399152 0.0657243 
-0.00523867 -0.0111709 0.0623993 0.013707 0.000399413 0.0576459 0.00134123 0.000149957 0.0629192 
-0.0126668 0.00434299 0.0816973 0.00261029 0.0133542 0.0827546 0.012965 0.000896318 0.0815878 
0.00312247 -0.00361575 0.0084084 0.00994874 0.00761267 0.0196296 -0.000869837 -0.00113562 0.0226878 
0.009418 -0.00799554 0.0149797 -0.00674581 -0.00294754 0.0747389 -0.00496414 0.0067499 0.0757388 
[...]
CELL_DATA 1348
SCALARS mat_id int
LOOKUP_TABLE default
6 6 6 6 6 6 6 6 6 
6 6 6 6 6 6 6 6 6 
6 6 6 6 6 6 6 6 6 
6 6 6 6 6 6 6 6 6 
6 6 6 6 6 6 6 6 6 
6 6 6 6 6 6 6 6 6 
6 6 6 6 6 6 6 6 6 
6 6 6 6 6 6 6 6 6 
6 6 6 6 6 6 6 6 6 
6 6 6 6 6 6 6 6 6 
6 6 6 6 6 6 6 6 6 
6 6 6 6 6 6 6 6 6 
6 6 6 6 6 6 6 6 6 
6 6 6 6 6 6 6 6 6 
6 6 6 6 6 6 6 6 6 
6 6 6 6 6 6 6 6 6 
6 6 6 6 6 6 6 6 6 
6 6 6 6 6 6 6 6 6 
6 6 6 6 6 6 6 6 6 
6 6 6 6 6 6 6 6 6 
6 6 6 6 6 6 6 6 6 
6 6 6 6 6 6 6 6 6 
6 6 6 6 6 6 6 6 6 
6 6 6 6 6 6 6 6 6 
6 6 6 6 6 6 6 6 6 
6 6 6 6 6 6 6 6 6 
6 6 6 6 6 6 6 6 6 
6 6 6 6 6 6 6 6 6 
6 6 6 6 6 6 6 6 6 
6 6 6 6 6 6 6 6 6 
6 6 6 6 6 6 6 6 6 
6 6 6 6 6 6 6 6 6 
6 6 6 6 6 6 6 6 6 
6 6 6 6 6 6 6 6 6 
6 6 6 6 6 6 6 6 6 
6 6 6 6 6 6 6 6 6 
6 6 6 6 6 6 6 6 6 
6 6 6 6 6 6 6 6 6 
6 6 6 6 6 6 6 6 6 
6 6 6 6 6 6 6 6 6 
6 6 6 6 6 6 6 6 6 
6 6 6 6 6 6 6 6 6 
6 6 6 6 6 6 6 6 6 
6 6 6 6 6 6 6 6 6 
6 6 6 6 6 6 6 6 6 
6 6 6 6 6 6 6 6 6 
6 6 6 6 6 6 6 6 6 
6 6 6 6 6 6 6 6 6 
6 6 6 6 6 6 6 6 6 
6 6 6 6 6 6 6 6 6 
6 6 6 6 6 6 6 6 6 
6 6 6 6 6 6 6 6 6 
6 6 6 6 6 6 6 6 6 
6 6 6 6 6 6 6 6 6 
6 6 6 6 6 6 6 6 6 
6 6 6 6 6 6 6 6 6 
6 6 6 6 6 6 6 6 6 
6 6 6 6 6 6 6 6 6 
6 6 6 6 6 6 6 6 6 
6 6 6 6 6 6 6 6 6 
6 6 6 6 6 6 6 6 6 
6 6 6 6 6 6 6 6 6 
6 6 6 6 6 6 6 6 6 
6 6 6 6 6 6 6 6 6 
6 6 6 6 6 6 6 6 6 
6 6 6 6 6 6 6 6 6 
6 6 6 6 6 6 6 6 6 
6 6 6 6 6 6 6 6 6 
6 6 6 6 6 6 6 6 6 
6 6 6 6 6 6 6 6 6 
6 6 6 6 6 6 6 6 6 
6 6 6 6 6 6 6 6 6 
6 6 6 6 6 6 6 6 6 
6 6 6 6 6 6 6 6 6 
6 6 6 6 6 6 6 6 6 
6 6 6 6 6 6 6 6 6 
6 6 6 6 6 6 6 6 6 
6 6 6 6 6 6 6 6 6 
6 6 6 6 6 6 6 6 6 
6 6 6 6 6 6 6 6 6 
6 6 6 6 6 6 6 6 6 
6 6 6 6 6 6 6 6 6 
6 6 6 6 6 6 6 6 6 
6 6 6 6 6 6 6 6 6 
6 6 6 6 6 6 6 6 6 
6 6 6 6 6 6 6 6 6 
6 6 6 6 6 6 6 6 6 
6 6 6 6 6 6 6 6 6 
6 6 6 6 6 6 6 6 6 
6 6 6 6 6 6 6 6 6 
6 6 6 6 6 6 6 6 6 
6 6 6 6 6 6 6 6 6 
6 6 6 6 6 6 6 6 6 
6 6 6 6 6 6 6 6 6 
6 6 6 6 6 6 6 6 6 
6 6 6 6 6 6 6 6 6 
6 6 6 6 6 6 6 6 6 
6 6 6 6 6 6 6 6 6 
6 6 6 6 6 6 6 6 6 
6 6 6 6 6 6 6 6 6 
6 6 6 6 6 6 6 6 6 
6 6 6 6 6 6 6 6 6 
6 6 6 6 6 6 6 6 6 
6 6 6 6 6 6 6 6 6 
6 6 6 6 6 6 6 6 6 
6 6 6 6 6 6 6 6 6 
6 6 6 6 6 6 6 6 6 
6 6 6 6 6 6 6 6 6 
6 6 6 6 6 6 6 6 6 
6 6 6 6 6 6 6 6 6 
6 6 6 6 6 6 6 6 6 
6 6 6 6 6 6 6 6 6 
6 6 6 6 6 6 6 6 6 
6 6 6 6 6 6 6 6 6 
6 6 6 6 6 6 6 6 6 
6 6 6 6 6 6 6 6 6 
6 6 6 6 6 6 6 6 6 
6 6 6 6 6 6 6 6 6 
6 6 6 6 6 6 6 6 6 
6 6 6 6 6 6 6 6 6 
6 6 6 6 6 6 6 6 6 
6 6 6 6 6 6 6 6 6 
6 6 6 6 6 6 6 6 6 
6 6 6 6 6 6 6 6 6 
6 6 6 6 6 6 6 6 6 
6 6 6 6 6 6 6 6 6 
6 6 6 6 6 6 6 6 6 
6 6 6 6 6 6 6 6 6 
6 6 6 6 6 6 6 6 6 
6 6 6 6 6 6 6 6 6 
6 6 6 6 6 6 6 6 6 
6 6 6 6 6 6 6 6 6 
6 6 6 6 6 6 6 6 6 
6 6 6 6 6 6 6 6 6 
6 6 6 6 6 6 6 6 6 
6 6 6 6 6 6 6 6 6 
6 6 6 6 6 6 6 6 6 
6 6 6 6 6 6 6 6 6 
6 6 6 6 6 6 6 6 6 
6 6 6 6 6 6 6 6 6 
6 6 6 6 6 6 6 6 6 
6 6 6 6 6 6 6 6 6 
6 6 6 6 6 6 6 6 6 
6 6 6 6 6 6 6 6 6 
6 6 6 6 6 6 6 6 6 
6 6 6 6 6 6 6 6 6 
6 6 6 6 6 6 6 6 6 
6 6 6 6 6 6 6 6 6 
6 6 6 6 6 6 6 6 6 
6 6 6 6 6 6 6 
METADATA
INFORMATION 0

